<?xml version="1.0" encoding="utf-8"?>
<fcd-export xmlns:xsi="http://www.w3.org/2001/XMLSchema-instance"
            xsi:noNamespaceSchemaLocation="http://sumo.dlr.de/xsd/fcd_file.xsd">
   <timestep time="0.00">
      <vehicle angle="90.00" id="veh1" lane="E0_2" pos="0.00" slope="0.00" speed="19.57"
               type="DEFAULT_VEHTYPE"
               x="0.00"
               y="11.10"/>
      <vehicle angle="90.00" id="veh2" lane="E0_2" pos="39.41" slope="0.00" speed="23.73"
               type="DEFAULT_VEHTYPE"
               x="39.41"
               y="11.10"/>
      <vehicle angle="90.00" id="veh3" lane="E0_0" pos="83.87" slope="0.00" speed="12.80"
               type="DEFAULT_VEHTYPE"
               x="83.87"
               y="3.70"/>
      <vehicle angle="90.00" id="veh4" lane="E0_2" pos="127.59" slope="0.00" speed="12.31"
               type="DEFAULT_VEHTYPE"
               x="127.59"
               y="11.10"/>
      <vehicle angle="90.00" id="veh5" lane="E0_1" pos="174.65" slope="0.00" speed="22.91"
               type="DEFAULT_VEHTYPE"
               x="174.65"
               y="7.40"/>
      <vehicle angle="90.00" id="veh6" lane="E0_0" pos="222.76" slope="0.00" speed="28.43"
               type="DEFAULT_VEHTYPE"
               x="222.76"
               y="3.70"/>
      <vehicle angle="90.00" id="veh7" lane="E0_0" pos="21.62" slope="0.00" speed="31.87"
               type="DEFAULT_VEHTYPE"
               x="21.62"
               y="3.70"/>
      <vehicle angle="90.00" id="veh8" lane="E0_1" pos="62.52" slope="0.00" speed="14.00"
               type="DEFAULT_VEHTYPE"
               x="62.52"
               y="7.40"/>
      <vehicle angle="90.00" id="veh9" lane="E0_2" pos="110.14" slope="0.00" speed="23.75"
               type="DEFAULT_VEHTYPE"
               x="110.14"
               y="11.10"/>
      <vehicle angle="90.00" id="veh10" lane="E0_2" pos="157.34" slope="0.00" speed="21.54"
               type="DEFAULT_VEHTYPE"
               x="157.34"
               y="11.10"/>
      <vehicle angle="90.00" id="veh11" lane="E0_0" pos="196.35" slope="0.00" speed="11.38"
               type="DEFAULT_VEHTYPE"
               x="196.35"
               y="3.70"/>
      <vehicle angle="90.00" id="veh12" lane="E0_2" pos="234.63" slope="0.00" speed="18.60"
               type="DEFAULT_VEHTYPE"
               x="234.63"
               y="11.10"/>
      <vehicle angle="90.00" id="veh13" lane="E0_2" pos="29.23" slope="0.00" speed="14.72"
               type="DEFAULT_VEHTYPE"
               x="29.23"
               y="11.10"/>
      <vehicle angle="90.00" id="veh14" lane="E0_1" pos="81.51" slope="0.00" speed="28.76"
               type="DEFAULT_VEHTYPE"
               x="81.51"
               y="7.40"/>
      <vehicle angle="90.00" id="veh15" lane="E0_2" pos="123.48" slope="0.00" speed="18.03"
               type="DEFAULT_VEHTYPE"
               x="123.48"
               y="11.10"/>
      <vehicle angle="90.00" id="veh16" lane="E0_0" pos="169.52" slope="0.00" speed="22.86"
               type="DEFAULT_VEHTYPE"
               x="169.52"
               y="3.70"/>
      <vehicle angle="90.00" id="veh17" lane="E0_1" pos="209.55" slope="0.00" speed="14.79"
               type="DEFAULT_VEHTYPE"
               x="209.55"
               y="7.40"/>
      <vehicle angle="90.00" id="veh18" lane="E0_2" pos="8.36" slope="0.00" speed="24.49"
               type="DEFAULT_VEHTYPE"
               x="8.36"
               y="11.10"/>
      <vehicle angle="90.00" id="veh19" lane="E0_2" pos="48.90" slope="0.00" speed="16.95"
               type="DEFAULT_VEHTYPE"
               x="48.90"
               y="11.10"/>
      <vehicle angle="90.00" id="veh20" lane="E0_2" pos="93.63" slope="0.00" speed="25.65"
               type="DEFAULT_VEHTYPE"
               x="93.63"
               y="11.10"/>
      <vehicle angle="90.00" id="veh21" lane="E0_1" pos="141.57" slope="0.00" speed="26.43"
               type="DEFAULT_VEHTYPE"
               x="141.57"
               y="7.40"/>
      <vehicle angle="90.00" id="veh22" lane="E0_0" pos="192.70" slope="0.00" speed="27.74"
               type="DEFAULT_VEHTYPE"
               x="192.70"
               y="3.70"/>
      <vehicle angle="270.00" id="veh23" lane="E0_2" pos="5.03" slope="0.00" speed="21.12"
               type="DEFAULT_VEHTYPE"
               x="5.03"
               y="22.20"/>
      <vehicle angle="270.00" id="veh24" lane="E0_2" pos="209.62" slope="0.00" speed="12.97"
               type="DEFAULT_VEHTYPE"
               x="209.62"
               y="22.20"/>
      <vehicle angle="270.00" id="veh25" lane="E0_2" pos="171.01" slope="0.00" speed="16.20"
               type="DEFAULT_VEHTYPE"
               x="171.01"
               y="22.20"/>
      <vehicle angle="270.00" id="veh26" lane="E0_2" pos="132.22" slope="0.00" speed="31.41"
               type="DEFAULT_VEHTYPE"
               x="132.22"
               y="22.20"/>
      <vehicle angle="270.00" id="veh27" lane="E0_2" pos="91.63" slope="0.00" speed="14.50"
               type="DEFAULT_VEHTYPE"
               x="91.63"
               y="22.20"/>
      <vehicle angle="270.00" id="veh28" lane="E0_1" pos="41.34" slope="0.00" speed="29.46"
               type="DEFAULT_VEHTYPE"
               x="41.34"
               y="18.50"/>
      <vehicle angle="270.00" id="veh29" lane="E0_1" pos="0.80" slope="0.00" speed="23.07"
               type="DEFAULT_VEHTYPE"
               x="0.80"
               y="18.50"/>
      <vehicle angle="270.00" id="veh30" lane="E0_0" pos="200.94" slope="0.00" speed="33.25"
               type="DEFAULT_VEHTYPE"
               x="200.94"
               y="14.80"/>
      <vehicle angle="270.00" id="veh31" lane="E0_2" pos="160.59" slope="0.00" speed="12.85"
               type="DEFAULT_VEHTYPE"
               x="160.59"
               y="22.20"/>
      <vehicle angle="270.00" id="veh32" lane="E0_0" pos="108.82" slope="0.00" speed="20.95"
               type="DEFAULT_VEHTYPE"
               x="108.82"
               y="14.80"/>
      <vehicle angle="270.00" id="veh33" lane="E0_0" pos="66.69" slope="0.00" speed="13.48"
               type="DEFAULT_VEHTYPE"
               x="66.69"
               y="14.80"/>
      <vehicle angle="270.00" id="veh34" lane="E0_0" pos="27.12" slope="0.00" speed="32.49"
               type="DEFAULT_VEHTYPE"
               x="27.12"
               y="14.80"/>
      <vehicle angle="270.00" id="veh35" lane="E0_0" pos="236.64" slope="0.00" speed="11.21"
               type="DEFAULT_VEHTYPE"
               x="236.64"
               y="14.80"/>
      <vehicle angle="270.00" id="veh36" lane="E0_2" pos="190.08" slope="0.00" speed="28.33"
               type="DEFAULT_VEHTYPE"
               x="190.08"
               y="22.20"/>
      <vehicle angle="270.00" id="veh37" lane="E0_2" pos="145.90" slope="0.00" speed="29.27"
               type="DEFAULT_VEHTYPE"
               x="145.90"
               y="22.20"/>
      <vehicle angle="270.00" id="veh38" lane="E0_0" pos="103.74" slope="0.00" speed="30.42"
               type="DEFAULT_VEHTYPE"
               x="103.74"
               y="14.80"/>
      <vehicle angle="270.00" id="veh39" lane="E0_2" pos="53.61" slope="0.00" speed="12.99"
               type="DEFAULT_VEHTYPE"
               x="53.61"
               y="22.20"/>
      <vehicle angle="270.00" id="veh40" lane="E0_0" pos="7.57" slope="0.00" speed="20.00"
               type="DEFAULT_VEHTYPE"
               x="7.57"
               y="14.80"/>
      <vehicle angle="270.00" id="veh41" lane="E0_1" pos="212.11" slope="0.00" speed="16.89"
               type="DEFAULT_VEHTYPE"
               x="212.11"
               y="18.50"/>
      <vehicle angle="270.00" id="veh42" lane="E0_1" pos="160.54" slope="0.00" speed="28.89"
               type="DEFAULT_VEHTYPE"
               x="160.54"
               y="18.50"/>
      <vehicle angle="270.00" id="veh43" lane="E0_2" pos="119.48" slope="0.00" speed="20.70"
               type="DEFAULT_VEHTYPE"
               x="119.48"
               y="22.20"/>
      <vehicle angle="270.00" id="veh44" lane="E0_2" pos="70.58" slope="0.00" speed="31.35"
               type="DEFAULT_VEHTYPE"
               x="70.58"
               y="22.20"/>
   </timestep>
   <timestep time="1.00">
      <vehicle angle="90.00" id="veh1" lane="E0_2" pos="19.57" slope="0.00" speed="19.57"
               type="DEFAULT_VEHTYPE"
               x="19.57"
               y="11.10"/>
      <vehicle angle="90.00" id="veh2" lane="E0_2" pos="63.14" slope="0.00" speed="23.73"
               type="DEFAULT_VEHTYPE"
               x="63.14"
               y="11.10"/>
      <vehicle angle="90.00" id="veh3" lane="E0_0" pos="96.66" slope="0.00" speed="12.80"
               type="DEFAULT_VEHTYPE"
               x="96.66"
               y="3.70"/>
      <vehicle angle="90.00" id="veh4" lane="E0_2" pos="139.90" slope="0.00" speed="12.31"
               type="DEFAULT_VEHTYPE"
               x="139.90"
               y="11.10"/>
      <vehicle angle="90.00" id="veh5" lane="E0_1" pos="197.55" slope="0.00" speed="22.91"
               type="DEFAULT_VEHTYPE"
               x="197.55"
               y="7.40"/>
      <vehicle angle="90.00" id="veh6" lane="E0_0" pos="1.18" slope="0.00" speed="28.43"
               type="DEFAULT_VEHTYPE"
               x="1.18"
               y="3.70"/>
      <vehicle angle="90.00" id="veh7" lane="E0_0" pos="53.49" slope="0.00" speed="31.87"
               type="DEFAULT_VEHTYPE"
               x="53.49"
               y="3.70"/>
      <vehicle angle="90.00" id="veh8" lane="E0_1" pos="76.52" slope="0.00" speed="14.00"
               type="DEFAULT_VEHTYPE"
               x="76.52"
               y="7.40"/>
      <vehicle angle="90.00" id="veh9" lane="E0_2" pos="133.89" slope="0.00" speed="23.75"
               type="DEFAULT_VEHTYPE"
               x="133.89"
               y="11.10"/>
      <vehicle angle="90.00" id="veh10" lane="E0_2" pos="178.88" slope="0.00" speed="21.54"
               type="DEFAULT_VEHTYPE"
               x="178.88"
               y="11.10"/>
      <vehicle angle="90.00" id="veh11" lane="E0_0" pos="207.73" slope="0.00" speed="11.38"
               type="DEFAULT_VEHTYPE"
               x="207.73"
               y="3.70"/>
      <vehicle angle="90.00" id="veh12" lane="E0_2" pos="3.23" slope="0.00" speed="18.60"
               type="DEFAULT_VEHTYPE"
               x="3.23"
               y="11.10"/>
      <vehicle angle="90.00" id="veh13" lane="E0_2" pos="43.94" slope="0.00" speed="14.72"
               type="DEFAULT_VEHTYPE"
               x="43.94"
               y="11.10"/>
      <vehicle angle="90.00" id="veh14" lane="E0_1" pos="110.27" slope="0.00" speed="28.76"
               type="DEFAULT_VEHTYPE"
               x="110.27"
               y="7.40"/>
      <vehicle angle="90.00" id="veh15" lane="E0_2" pos="141.50" slope="0.00" speed="18.03"
               type="DEFAULT_VEHTYPE"
               x="141.50"
               y="11.10"/>
      <vehicle angle="90.00" id="veh16" lane="E0_0" pos="192.38" slope="0.00" speed="22.86"
               type="DEFAULT_VEHTYPE"
               x="192.38"
               y="3.70"/>
      <vehicle angle="90.00" id="veh17" lane="E0_1" pos="224.34" slope="0.00" speed="14.79"
               type="DEFAULT_VEHTYPE"
               x="224.34"
               y="7.40"/>
      <vehicle angle="90.00" id="veh18" lane="E0_2" pos="32.84" slope="0.00" speed="24.49"
               type="DEFAULT_VEHTYPE"
               x="32.84"
               y="11.10"/>
      <vehicle angle="90.00" id="veh19" lane="E0_2" pos="65.86" slope="0.00" speed="16.95"
               type="DEFAULT_VEHTYPE"
               x="65.86"
               y="11.10"/>
      <vehicle angle="90.00" id="veh20" lane="E0_2" pos="119.27" slope="0.00" speed="25.65"
               type="DEFAULT_VEHTYPE"
               x="119.27"
               y="11.10"/>
      <vehicle angle="90.00" id="veh21" lane="E0_1" pos="167.99" slope="0.00" speed="26.43"
               type="DEFAULT_VEHTYPE"
               x="167.99"
               y="7.40"/>
      <vehicle angle="90.00" id="veh22" lane="E0_0" pos="220.44" slope="0.00" speed="27.74"
               type="DEFAULT_VEHTYPE"
               x="220.44"
               y="3.70"/>
      <vehicle angle="270.00" id="veh23" lane="E0_2" pos="233.90" slope="0.00" speed="21.12"
               type="DEFAULT_VEHTYPE"
               x="233.90"
               y="22.20"/>
      <vehicle angle="270.00" id="veh24" lane="E0_2" pos="196.64" slope="0.00" speed="12.97"
               type="DEFAULT_VEHTYPE"
               x="196.64"
               y="22.20"/>
      <vehicle angle="270.00" id="veh25" lane="E0_2" pos="154.81" slope="0.00" speed="16.20"
               type="DEFAULT_VEHTYPE"
               x="154.81"
               y="22.20"/>
      <vehicle angle="270.00" id="veh26" lane="E0_2" pos="100.81" slope="0.00" speed="31.41"
               type="DEFAULT_VEHTYPE"
               x="100.81"
               y="22.20"/>
      <vehicle angle="270.00" id="veh27" lane="E0_2" pos="77.14" slope="0.00" speed="14.50"
               type="DEFAULT_VEHTYPE"
               x="77.14"
               y="22.20"/>
      <vehicle angle="270.00" id="veh28" lane="E0_1" pos="11.87" slope="0.00" speed="29.46"
               type="DEFAULT_VEHTYPE"
               x="11.87"
               y="18.50"/>
      <vehicle angle="270.00" id="veh29" lane="E0_1" pos="227.73" slope="0.00" speed="23.07"
               type="DEFAULT_VEHTYPE"
               x="227.73"
               y="18.50"/>
      <vehicle angle="270.00" id="veh30" lane="E0_0" pos="167.70" slope="0.00" speed="33.25"
               type="DEFAULT_VEHTYPE"
               x="167.70"
               y="14.80"/>
      <vehicle angle="270.00" id="veh31" lane="E0_2" pos="147.74" slope="0.00" speed="12.85"
               type="DEFAULT_VEHTYPE"
               x="147.74"
               y="22.20"/>
      <vehicle angle="270.00" id="veh32" lane="E0_0" pos="87.87" slope="0.00" speed="20.95"
               type="DEFAULT_VEHTYPE"
               x="87.87"
               y="14.80"/>
      <vehicle angle="270.00" id="veh33" lane="E0_0" pos="53.21" slope="0.00" speed="13.48"
               type="DEFAULT_VEHTYPE"
               x="53.21"
               y="14.80"/>
      <vehicle angle="270.00" id="veh34" lane="E0_0" pos="244.63" slope="0.00" speed="32.49"
               type="DEFAULT_VEHTYPE"
               x="244.63"
               y="14.80"/>
      <vehicle angle="270.00" id="veh35" lane="E0_0" pos="225.42" slope="0.00" speed="11.21"
               type="DEFAULT_VEHTYPE"
               x="225.42"
               y="14.80"/>
      <vehicle angle="270.00" id="veh36" lane="E0_2" pos="161.75" slope="0.00" speed="28.33"
               type="DEFAULT_VEHTYPE"
               x="161.75"
               y="22.20"/>
      <vehicle angle="270.00" id="veh37" lane="E0_2" pos="116.63" slope="0.00" speed="29.27"
               type="DEFAULT_VEHTYPE"
               x="116.63"
               y="22.20"/>
      <vehicle angle="270.00" id="veh38" lane="E0_0" pos="73.33" slope="0.00" speed="30.42"
               type="DEFAULT_VEHTYPE"
               x="73.33"
               y="14.80"/>
      <vehicle angle="270.00" id="veh39" lane="E0_2" pos="40.62" slope="0.00" speed="12.99"
               type="DEFAULT_VEHTYPE"
               x="40.62"
               y="22.20"/>
      <vehicle angle="270.00" id="veh40" lane="E0_0" pos="237.57" slope="0.00" speed="20.00"
               type="DEFAULT_VEHTYPE"
               x="237.57"
               y="14.80"/>
      <vehicle angle="270.00" id="veh41" lane="E0_1" pos="195.23" slope="0.00" speed="16.89"
               type="DEFAULT_VEHTYPE"
               x="195.23"
               y="18.50"/>
      <vehicle angle="270.00" id="veh42" lane="E0_1" pos="131.65" slope="0.00" speed="28.89"
               type="DEFAULT_VEHTYPE"
               x="131.65"
               y="18.50"/>
      <vehicle angle="270.00" id="veh43" lane="E0_2" pos="98.78" slope="0.00" speed="20.70"
               type="DEFAULT_VEHTYPE"
               x="98.78"
               y="22.20"/>
      <vehicle angle="270.00" id="veh44" lane="E0_2" pos="39.23" slope="0.00" speed="31.35"
               type="DEFAULT_VEHTYPE"
               x="39.23"
               y="22.20"/>
   </timestep>
   <timestep time="2.00">
      <vehicle angle="90.00" id="veh1" lane="E0_2" pos="39.13" slope="0.00" speed="19.57"
               type="DEFAULT_VEHTYPE"
               x="39.13"
               y="11.10"/>
      <vehicle angle="90.00" id="veh2" lane="E0_2" pos="86.87" slope="0.00" speed="23.73"
               type="DEFAULT_VEHTYPE"
               x="86.87"
               y="11.10"/>
      <vehicle angle="90.00" id="veh3" lane="E0_0" pos="109.46" slope="0.00" speed="12.80"
               type="DEFAULT_VEHTYPE"
               x="109.46"
               y="3.70"/>
      <vehicle angle="90.00" id="veh4" lane="E0_2" pos="152.21" slope="0.00" speed="12.31"
               type="DEFAULT_VEHTYPE"
               x="152.21"
               y="11.10"/>
      <vehicle angle="90.00" id="veh5" lane="E0_1" pos="220.46" slope="0.00" speed="22.91"
               type="DEFAULT_VEHTYPE"
               x="220.46"
               y="7.40"/>
      <vehicle angle="90.00" id="veh6" lane="E0_0" pos="29.61" slope="0.00" speed="28.43"
               type="DEFAULT_VEHTYPE"
               x="29.61"
               y="3.70"/>
      <vehicle angle="90.00" id="veh7" lane="E0_0" pos="85.36" slope="0.00" speed="31.87"
               type="DEFAULT_VEHTYPE"
               x="85.36"
               y="3.70"/>
      <vehicle angle="90.00" id="veh8" lane="E0_1" pos="90.51" slope="0.00" speed="14.00"
               type="DEFAULT_VEHTYPE"
               x="90.51"
               y="7.40"/>
      <vehicle angle="90.00" id="veh9" lane="E0_2" pos="157.64" slope="0.00" speed="23.75"
               type="DEFAULT_VEHTYPE"
               x="157.64"
               y="11.10"/>
      <vehicle angle="90.00" id="veh10" lane="E0_2" pos="200.43" slope="0.00" speed="21.54"
               type="DEFAULT_VEHTYPE"
               x="200.43"
               y="11.10"/>
      <vehicle angle="90.00" id="veh11" lane="E0_0" pos="219.10" slope="0.00" speed="11.38"
               type="DEFAULT_VEHTYPE"
               x="219.10"
               y="3.70"/>
      <vehicle angle="90.00" id="veh12" lane="E0_2" pos="21.84" slope="0.00" speed="18.60"
               type="DEFAULT_VEHTYPE"
               x="21.84"
               y="11.10"/>
      <vehicle angle="90.00" id="veh13" lane="E0_2" pos="58.66" slope="0.00" speed="14.72"
               type="DEFAULT_VEHTYPE"
               x="58.66"
               y="11.10"/>
      <vehicle angle="90.00" id="veh14" lane="E0_1" pos="139.03" slope="0.00" speed="28.76"
               type="DEFAULT_VEHTYPE"
               x="139.03"
               y="7.40"/>
      <vehicle angle="90.00" id="veh15" lane="E0_2" pos="159.53" slope="0.00" speed="18.03"
               type="DEFAULT_VEHTYPE"
               x="159.53"
               y="11.10"/>
      <vehicle angle="90.00" id="veh16" lane="E0_0" pos="215.23" slope="0.00" speed="22.86"
               type="DEFAULT_VEHTYPE"
               x="215.23"
               y="3.70"/>
      <vehicle angle="90.00" id="veh17" lane="E0_1" pos="239.13" slope="0.00" speed="14.79"
               type="DEFAULT_VEHTYPE"
               x="239.13"
               y="7.40"/>
      <vehicle angle="90.00" id="veh18" lane="E0_2" pos="57.33" slope="0.00" speed="24.49"
               type="DEFAULT_VEHTYPE"
               x="57.33"
               y="11.10"/>
      <vehicle angle="90.00" id="veh19" lane="E0_2" pos="82.81" slope="0.00" speed="16.95"
               type="DEFAULT_VEHTYPE"
               x="82.81"
               y="11.10"/>
      <vehicle angle="90.00" id="veh20" lane="E0_2" pos="144.92" slope="0.00" speed="25.65"
               type="DEFAULT_VEHTYPE"
               x="144.92"
               y="11.10"/>
      <vehicle angle="90.00" id="veh21" lane="E0_1" pos="194.42" slope="0.00" speed="26.43"
               type="DEFAULT_VEHTYPE"
               x="194.42"
               y="7.40"/>
      <vehicle angle="90.00" id="veh22" lane="E0_0" pos="248.17" slope="0.00" speed="27.74"
               type="DEFAULT_VEHTYPE"
               x="248.17"
               y="3.70"/>
      <vehicle angle="270.00" id="veh23" lane="E0_2" pos="212.78" slope="0.00" speed="21.12"
               type="DEFAULT_VEHTYPE"
               x="212.78"
               y="22.20"/>
      <vehicle angle="270.00" id="veh24" lane="E0_2" pos="183.67" slope="0.00" speed="12.97"
               type="DEFAULT_VEHTYPE"
               x="183.67"
               y="22.20"/>
      <vehicle angle="270.00" id="veh25" lane="E0_2" pos="138.61" slope="0.00" speed="16.20"
               type="DEFAULT_VEHTYPE"
               x="138.61"
               y="22.20"/>
      <vehicle angle="270.00" id="veh26" lane="E0_2" pos="69.41" slope="0.00" speed="31.41"
               type="DEFAULT_VEHTYPE"
               x="69.41"
               y="22.20"/>
      <vehicle angle="270.00" id="veh27" lane="E0_2" pos="62.64" slope="0.00" speed="14.50"
               type="DEFAULT_VEHTYPE"
               x="62.64"
               y="22.20"/>
      <vehicle angle="270.00" id="veh28" lane="E0_1" pos="232.41" slope="0.00" speed="29.46"
               type="DEFAULT_VEHTYPE"
               x="232.41"
               y="18.50"/>
      <vehicle angle="270.00" id="veh29" lane="E0_1" pos="204.65" slope="0.00" speed="23.07"
               type="DEFAULT_VEHTYPE"
               x="204.65"
               y="18.50"/>
      <vehicle angle="270.00" id="veh30" lane="E0_0" pos="134.45" slope="0.00" speed="33.25"
               type="DEFAULT_VEHTYPE"
               x="134.45"
               y="14.80"/>
      <vehicle angle="270.00" id="veh31" lane="E0_2" pos="134.89" slope="0.00" speed="12.85"
               type="DEFAULT_VEHTYPE"
               x="134.89"
               y="22.20"/>
      <vehicle angle="270.00" id="veh32" lane="E0_0" pos="66.92" slope="0.00" speed="20.95"
               type="DEFAULT_VEHTYPE"
               x="66.92"
               y="14.80"/>
      <vehicle angle="270.00" id="veh33" lane="E0_0" pos="39.73" slope="0.00" speed="13.48"
               type="DEFAULT_VEHTYPE"
               x="39.73"
               y="14.80"/>
      <vehicle angle="270.00" id="veh34" lane="E0_0" pos="212.14" slope="0.00" speed="32.49"
               type="DEFAULT_VEHTYPE"
               x="212.14"
               y="14.80"/>
      <vehicle angle="270.00" id="veh35" lane="E0_0" pos="214.21" slope="0.00" speed="11.21"
               type="DEFAULT_VEHTYPE"
               x="214.21"
               y="14.80"/>
      <vehicle angle="270.00" id="veh36" lane="E0_2" pos="133.42" slope="0.00" speed="28.33"
               type="DEFAULT_VEHTYPE"
               x="133.42"
               y="22.20"/>
      <vehicle angle="270.00" id="veh37" lane="E0_2" pos="87.35" slope="0.00" speed="29.27"
               type="DEFAULT_VEHTYPE"
               x="87.35"
               y="22.20"/>
      <vehicle angle="270.00" id="veh38" lane="E0_0" pos="42.91" slope="0.00" speed="30.42"
               type="DEFAULT_VEHTYPE"
               x="42.91"
               y="14.80"/>
      <vehicle angle="270.00" id="veh39" lane="E0_2" pos="27.64" slope="0.00" speed="12.99"
               type="DEFAULT_VEHTYPE"
               x="27.64"
               y="22.20"/>
      <vehicle angle="270.00" id="veh40" lane="E0_0" pos="217.58" slope="0.00" speed="20.00"
               type="DEFAULT_VEHTYPE"
               x="217.58"
               y="14.80"/>
      <vehicle angle="270.00" id="veh41" lane="E0_1" pos="178.34" slope="0.00" speed="16.89"
               type="DEFAULT_VEHTYPE"
               x="178.34"
               y="18.50"/>
      <vehicle angle="270.00" id="veh42" lane="E0_1" pos="102.76" slope="0.00" speed="28.89"
               type="DEFAULT_VEHTYPE"
               x="102.76"
               y="18.50"/>
      <vehicle angle="270.00" id="veh43" lane="E0_2" pos="78.09" slope="0.00" speed="20.70"
               type="DEFAULT_VEHTYPE"
               x="78.09"
               y="22.20"/>
      <vehicle angle="270.00" id="veh44" lane="E0_2" pos="7.88" slope="0.00" speed="31.35"
               type="DEFAULT_VEHTYPE"
               x="7.88"
               y="22.20"/>
   </timestep>
   <timestep time="3.00">
      <vehicle angle="90.00" id="veh1" lane="E0_2" pos="58.70" slope="0.00" speed="19.57"
               type="DEFAULT_VEHTYPE"
               x="58.70"
               y="11.10"/>
      <vehicle angle="90.00" id="veh2" lane="E0_2" pos="110.60" slope="0.00" speed="23.73"
               type="DEFAULT_VEHTYPE"
               x="110.60"
               y="11.10"/>
      <vehicle angle="90.00" id="veh3" lane="E0_0" pos="122.26" slope="0.00" speed="12.80"
               type="DEFAULT_VEHTYPE"
               x="122.26"
               y="3.70"/>
      <vehicle angle="90.00" id="veh4" lane="E0_2" pos="164.52" slope="0.00" speed="12.31"
               type="DEFAULT_VEHTYPE"
               x="164.52"
               y="11.10"/>
      <vehicle angle="90.00" id="veh5" lane="E0_1" pos="243.37" slope="0.00" speed="22.91"
               type="DEFAULT_VEHTYPE"
               x="243.37"
               y="7.40"/>
      <vehicle angle="90.00" id="veh6" lane="E0_0" pos="58.03" slope="0.00" speed="28.43"
               type="DEFAULT_VEHTYPE"
               x="58.03"
               y="3.70"/>
      <vehicle angle="90.00" id="veh7" lane="E0_0" pos="117.22" slope="0.00" speed="31.87"
               type="DEFAULT_VEHTYPE"
               x="117.22"
               y="3.70"/>
      <vehicle angle="90.00" id="veh8" lane="E0_1" pos="104.51" slope="0.00" speed="14.00"
               type="DEFAULT_VEHTYPE"
               x="104.51"
               y="7.40"/>
      <vehicle angle="90.00" id="veh9" lane="E0_2" pos="181.39" slope="0.00" speed="23.75"
               type="DEFAULT_VEHTYPE"
               x="181.39"
               y="11.10"/>
      <vehicle angle="90.00" id="veh10" lane="E0_2" pos="221.97" slope="0.00" speed="21.54"
               type="DEFAULT_VEHTYPE"
               x="221.97"
               y="11.10"/>
      <vehicle angle="90.00" id="veh11" lane="E0_0" pos="230.48" slope="0.00" speed="11.38"
               type="DEFAULT_VEHTYPE"
               x="230.48"
               y="3.70"/>
      <vehicle angle="90.00" id="veh12" lane="E0_2" pos="40.44" slope="0.00" speed="18.60"
               type="DEFAULT_VEHTYPE"
               x="40.44"
               y="11.10"/>
      <vehicle angle="90.00" id="veh13" lane="E0_2" pos="73.37" slope="0.00" speed="14.72"
               type="DEFAULT_VEHTYPE"
               x="73.37"
               y="11.10"/>
      <vehicle angle="90.00" id="veh14" lane="E0_1" pos="167.79" slope="0.00" speed="28.76"
               type="DEFAULT_VEHTYPE"
               x="167.79"
               y="7.40"/>
      <vehicle angle="90.00" id="veh15" lane="E0_2" pos="177.56" slope="0.00" speed="18.03"
               type="DEFAULT_VEHTYPE"
               x="177.56"
               y="11.10"/>
      <vehicle angle="90.00" id="veh16" lane="E0_0" pos="238.09" slope="0.00" speed="22.86"
               type="DEFAULT_VEHTYPE"
               x="238.09"
               y="3.70"/>
      <vehicle angle="90.00" id="veh17" lane="E0_1" pos="3.92" slope="0.00" speed="14.79"
               type="DEFAULT_VEHTYPE"
               x="3.92"
               y="7.40"/>
      <vehicle angle="90.00" id="veh18" lane="E0_2" pos="81.82" slope="0.00" speed="24.49"
               type="DEFAULT_VEHTYPE"
               x="81.82"
               y="11.10"/>
      <vehicle angle="90.00" id="veh19" lane="E0_2" pos="99.77" slope="0.00" speed="16.95"
               type="DEFAULT_VEHTYPE"
               x="99.77"
               y="11.10"/>
      <vehicle angle="90.00" id="veh20" lane="E0_2" pos="170.57" slope="0.00" speed="25.65"
               type="DEFAULT_VEHTYPE"
               x="170.57"
               y="11.10"/>
      <vehicle angle="90.00" id="veh21" lane="E0_1" pos="220.85" slope="0.00" speed="26.43"
               type="DEFAULT_VEHTYPE"
               x="220.85"
               y="7.40"/>
      <vehicle angle="90.00" id="veh22" lane="E0_0" pos="25.91" slope="0.00" speed="27.74"
               type="DEFAULT_VEHTYPE"
               x="25.91"
               y="3.70"/>
      <vehicle angle="270.00" id="veh23" lane="E0_2" pos="191.66" slope="0.00" speed="21.12"
               type="DEFAULT_VEHTYPE"
               x="191.66"
               y="22.20"/>
      <vehicle angle="270.00" id="veh24" lane="E0_2" pos="170.69" slope="0.00" speed="12.97"
               type="DEFAULT_VEHTYPE"
               x="170.69"
               y="22.20"/>
      <vehicle angle="270.00" id="veh25" lane="E0_2" pos="122.41" slope="0.00" speed="16.20"
               type="DEFAULT_VEHTYPE"
               x="122.41"
               y="22.20"/>
      <vehicle angle="270.00" id="veh26" lane="E0_2" pos="38.00" slope="0.00" speed="31.41"
               type="DEFAULT_VEHTYPE"
               x="38.00"
               y="22.20"/>
      <vehicle angle="270.00" id="veh27" lane="E0_2" pos="48.14" slope="0.00" speed="14.50"
               type="DEFAULT_VEHTYPE"
               x="48.14"
               y="22.20"/>
      <vehicle angle="270.00" id="veh28" lane="E0_1" pos="202.95" slope="0.00" speed="29.46"
               type="DEFAULT_VEHTYPE"
               x="202.95"
               y="18.50"/>
      <vehicle angle="270.00" id="veh29" lane="E0_1" pos="181.58" slope="0.00" speed="23.07"
               type="DEFAULT_VEHTYPE"
               x="181.58"
               y="18.50"/>
      <vehicle angle="270.00" id="veh30" lane="E0_0" pos="101.20" slope="0.00" speed="33.25"
               type="DEFAULT_VEHTYPE"
               x="101.20"
               y="14.80"/>
      <vehicle angle="270.00" id="veh31" lane="E0_2" pos="122.04" slope="0.00" speed="12.85"
               type="DEFAULT_VEHTYPE"
               x="122.04"